Title: * Z:\home\patrick\Dropbox\2270ecen\2lab\b\Draft3.asc
Date: Tue Sep 24 20:10:55 2013
Plotname: Transient Analysis
Flags: real forward
No. Variables: 10
No. Points:            0
Offset:   0.0000000000000000e+000
Command: Linear Technology Corporation LTspice IV
Variables:
