Title: * Z:\home\patrick\Dropbox\2270ecen\2lab\a\DC_motor_model.asc
Date: Wed Sep 25 15:23:51 2013
Plotname: Transient Analysis
Flags: real forward
No. Variables: 23
No. Points:            0
Offset:   0.0000000000000000e+000
Command: Linear Technology Corporation LTspice IV
Variables:
